LAMMPS (12 Feb 2014)
# Init

# package cuda gpu/node 1

newton off

units       si
dimension   3
boundary    p p p
atom_style  sphere
neighbor  100e-9 bin
communicate single vel yes
processors * * *

# Atom definition
#read_data start_50grains_sphere_collision_v50.init
read_data start.init
  orthogonal box = (7.6003e-07 7.6004e-07 0) to (7.36044e-05 7.36369e-05 0.000155004)
  1 by 1 by 1 MPI processor grid
  reading atoms ...
  987 atoms
#replicate 4 2 2
#replicate 4 4 4

# Groups
group kette type 1
987 atoms in group kette
group starter type 2
0 atoms in group starter

#Settings
# pair_style gran/easy 2.7e10 0.17 0.5e-9 0.025 0.1e-9 0.736e-5  #you have to modify the values for your implementation
pair_style gran/hooke 200000.0 70000.0 50.0 30.0 0.5 0
pair_coeff * *
timestep 5e-11


# fixes & compute
fix 1 kette nve/sphere
fix 2 starter nve/sphere
#fix 3 all viscous 1e-6

compute 1 all ke/atom

# RUN

dump 1 all custom 1000 output.* id type x y z vx vy vz omegax omegay omegaz
#dump_modify 1 format "%d %d %5.20g %5.20g %5.20g %1.1g %1.1g %1.1g %1.1g %1.1g
thermo 100

#run 1000 upto
run 800000 upto
Memory usage per processor = 10.5669 Mbytes
Step Temp E_pair E_mol TotEng Press 
       0            0            0            0            0    37724.853 
     100 7.0203793e+08            0            0 1.4335488e-11     11.61432 
     200 7.0148505e+08            0            0 1.4324198e-11     52.46137 
     300 7.0202714e+08            0            0 1.4335267e-11    11.614141 
     400 7.0201373e+08            0            0 1.4334994e-11     11.61392 
     500 7.0200973e+08            0            0 1.4334912e-11    11.613853 
     600 7.0202114e+08            0            0 1.4335145e-11    11.614042 
     700 7.0192299e+08            0            0 1.4333141e-11    32.471051 
     800 7.0200052e+08            0            0 1.4334724e-11    11.613701 
     900 7.0120688e+08            0            0 1.4318518e-11    59.069471 
    1000 7.0201016e+08            0            0 1.4334921e-11    16.155623 
    1100 7.0190704e+08            0            0 1.4332815e-11    29.891184 
    1200 7.0201399e+08            0            0 1.4334999e-11    11.613924 
    1300 7.0202475e+08            0            0 1.4335219e-11    11.614102 
    1400 7.0199181e+08            0            0 1.4334546e-11     21.01034 
    1500 7.0202183e+08            0            0 1.4335159e-11    11.614054 
    1600 7.0200789e+08            0            0 1.4334874e-11    11.613823 
    1700 7.0200475e+08            0            0 1.433481e-11    11.613771 
    1800 7.0200447e+08            0            0 1.4334805e-11    11.613766 
    1900 7.0200449e+08            0            0 1.4334805e-11    11.613767 
    2000 7.0200598e+08            0            0 1.4334835e-11    11.613791 
    2100 7.0189888e+08            0            0 1.4332648e-11    32.053603 
    2200 7.019905e+08            0            0 1.4334519e-11    21.114609 
    2300 7.0198652e+08            0            0 1.4334438e-11    22.615847 
    2400 7.0203788e+08            0            0 1.4335487e-11    11.614319 
    2500 7.0202208e+08            0            0 1.4335164e-11    11.614058 
    2600 7.0149872e+08            0            0 1.4324477e-11    51.734029 
    2700 7.0200703e+08            0            0 1.4334857e-11    11.613809 
    2800 7.0200562e+08            0            0 1.4334828e-11    11.613786 
    2900 7.019635e+08            0            0 1.4333968e-11    24.649986 
    3000 7.0201578e+08            0            0 1.4335035e-11    11.613954 
    3100 7.0202147e+08            0            0 1.4335152e-11    11.614048 
    3200 7.0202374e+08            0            0 1.4335198e-11    11.614085 
    3300 7.0202331e+08            0            0 1.4335189e-11    11.614078 
    3400 7.0202736e+08            0            0 1.4335272e-11    11.614145 
    3500 7.0202271e+08            0            0 1.4335177e-11    11.614068 
    3600 7.0185636e+08            0            0 1.433178e-11    34.332452 
    3700 7.0202367e+08            0            0 1.4335197e-11    11.614084 
    3800 7.0201444e+08            0            0 1.4335008e-11    11.613931 
    3900 7.0199028e+08            0            0 1.4334515e-11    18.627071 
    4000 7.0193163e+08            0            0 1.4333317e-11    26.595839 
    4100 7.0175328e+08            0            0 1.4329675e-11    39.870458 
    4200 7.0199762e+08            0            0 1.4334665e-11    11.613653 
    4300 7.0200774e+08            0            0 1.4334871e-11    11.613821 
    4400 7.0197778e+08            0            0 1.4334259e-11    20.489276 
    4500 7.0198517e+08            0            0 1.433441e-11    14.897499 
    4600 7.0200632e+08            0            0 1.4334842e-11    11.613797 
    4700 7.0187432e+08            0            0 1.4332147e-11    32.401693 
    4800 7.0202403e+08            0            0 1.4335204e-11     11.61409 
    4900  7.02008e+08            0            0 1.4334877e-11     13.63773 
    5000 7.0203105e+08            0            0 1.4335347e-11    11.614206 
    5100 7.0203873e+08            0            0 1.4335504e-11    11.614333 
    5200 7.0203463e+08            0            0 1.433542e-11    11.614265 
    5300 7.0203735e+08            0            0 1.4335476e-11     11.61431 
    5400 7.0204419e+08            0            0 1.4335616e-11    11.614423 
    5500 7.0204381e+08            0            0 1.4335608e-11    11.614417 
    5600 7.0204086e+08            0            0 1.4335548e-11    11.614368 
    5700 7.0204098e+08            0            0 1.433555e-11     11.61437 
    5800 7.0203588e+08            0            0 1.4335446e-11    11.614286 
    5900 7.0204066e+08            0            0 1.4335543e-11    11.614365 
    6000 7.0204071e+08            0            0 1.4335545e-11    11.614366 
    6100 7.0189745e+08            0            0 1.4332619e-11    32.335071 
    6200 7.017452e+08            0            0 1.432951e-11    41.452707 
    6300 7.0202815e+08            0            0 1.4335288e-11    11.614158 
    6400 7.0203006e+08            0            0 1.4335327e-11     11.61419 
    6500 7.0203414e+08            0            0 1.433541e-11    11.614257 
    6600 7.0203323e+08            0            0 1.4335392e-11    11.614242 
    6700 7.0201047e+08            0            0 1.4334927e-11    16.914593 
    6800 7.0194626e+08            0            0 1.4333616e-11    26.351462 
    6900 7.020094e+08            0            0 1.4334905e-11     13.70368 
    7000 7.0201173e+08            0            0 1.4334953e-11    11.613886 
    7100 7.0201613e+08            0            0 1.4335043e-11    11.613959 
    7200 7.0178189e+08            0            0 1.433026e-11    38.265398 
    7300 7.0200906e+08            0            0 1.4334898e-11    11.613842 
    7400 7.0201586e+08            0            0 1.4335037e-11    11.613955 
    7500 7.0142427e+08            0            0 1.4322957e-11    54.590223 
    7600 7.0197866e+08            0            0 1.4334277e-11    23.633969 
    7700 7.0200796e+08            0            0 1.4334876e-11    11.613824 
    7800 7.0197208e+08            0            0 1.4334143e-11    17.368347 
    7900 7.0184719e+08            0            0 1.4331593e-11     33.69693 
    8000 7.0193981e+08            0            0 1.4333484e-11    24.623408 
    8100 7.0198605e+08            0            0 1.4334428e-11    11.613462 
    8200 7.0198508e+08            0            0 1.4334409e-11    11.613446 
    8300 7.019854e+08            0            0 1.4334415e-11    11.613451 
    8400 7.0198575e+08            0            0 1.4334422e-11    11.613457 
    8500 7.0198493e+08            0            0 1.4334406e-11    11.613443 
    8600 7.0198369e+08            0            0 1.433438e-11    11.613423 
    8700 7.0198334e+08            0            0 1.4334373e-11    11.613417 
    8800 7.0198336e+08            0            0 1.4334373e-11    11.613417 
    8900 7.0185824e+08            0            0 1.4331819e-11    28.127576 
    9000 7.0198844e+08            0            0 1.4334477e-11    11.613501 
    9100 7.0194529e+08            0            0 1.4333596e-11    23.865353 
    9200 7.0199271e+08            0            0 1.4334564e-11    11.613572 
    9300 7.0195044e+08            0            0 1.4333701e-11    24.326024 
    9400 7.0190421e+08            0            0 1.4332757e-11    27.714737 
    9500 7.0185132e+08            0            0 1.4331677e-11    31.297643 
    9600 7.0198923e+08            0            0 1.4334493e-11    11.613514 
    9700 7.0199001e+08            0            0 1.4334509e-11    11.613527 
    9800 7.0198975e+08            0            0 1.4334504e-11    11.613523 
    9900 7.019609e+08            0            0 1.4333915e-11    22.147259 
   10000 7.019981e+08            0            0 1.4334674e-11    11.613661 
   10100 7.0199818e+08            0            0 1.4334676e-11    11.613662 
   10200 7.0199129e+08            0            0 1.4334535e-11    11.613548 
   10300 7.0197931e+08            0            0 1.4334291e-11     17.59729 
   10400 7.0184957e+08            0            0 1.4331642e-11    33.188952 
   10500 7.0199744e+08            0            0 1.4334661e-11     11.61365 
   10600 7.0199538e+08            0            0 1.4334619e-11    11.613616 
   10700 7.0199538e+08            0            0 1.4334619e-11    11.613616 
   10800 7.0199733e+08            0            0 1.4334659e-11    11.613648 
   10900 7.0199733e+08            0            0 1.4334659e-11    11.613648 
   11000 7.0199803e+08            0            0 1.4334673e-11     11.61366 
   11100 7.0199728e+08            0            0 1.4334658e-11    11.613647 
   11200 7.0199546e+08            0            0 1.433462e-11    11.613617 
   11300 7.0199554e+08            0            0 1.4334622e-11    11.613619 
   11400 7.0200223e+08            0            0 1.4334759e-11    11.613729 
   11500 7.019999e+08            0            0 1.4334711e-11    11.613691 
   11600 7.0200374e+08            0            0 1.433479e-11    11.613754 
   11700 7.020103e+08            0            0 1.4334924e-11    11.613863 
   11800 7.0200762e+08            0            0 1.4334869e-11    11.613819 
   11900 7.0199345e+08            0            0 1.4334579e-11    11.613584 
   12000 7.019939e+08            0            0 1.4334589e-11    11.613591 
   12100 7.019937e+08            0            0 1.4334585e-11    11.613588 
   12200 7.0198881e+08            0            0 1.4334485e-11    11.613507 
   12300 7.0198794e+08            0            0 1.4334467e-11    11.613493 
   12400 7.0198949e+08            0            0 1.4334499e-11    11.613519 
   12500 7.0198931e+08            0            0 1.4334495e-11    11.613516 
   12600 7.0198535e+08            0            0 1.4334414e-11     11.61345 
   12700 7.0198851e+08            0            0 1.4334479e-11    11.613502 
   12800 7.0198851e+08            0            0 1.4334479e-11    11.613502 
   12900 7.0199192e+08            0            0 1.4334548e-11    11.613559 
   13000 7.0199211e+08            0            0 1.4334552e-11    11.613562 
   13100 7.0195487e+08            0            0 1.4333792e-11    22.551854 
   13200 7.0198936e+08            0            0 1.4334496e-11    11.613516 
   13300 7.0198976e+08            0            0 1.4334504e-11    11.613523 
   13400 7.0172079e+08            0            0 1.4329012e-11    40.548687 
   13500 7.0198733e+08            0            0 1.4334455e-11    11.613483 
   13600 7.0198646e+08            0            0 1.4334437e-11    11.613468 
   13700 7.0184784e+08            0            0 1.4331606e-11     31.38039 
   13800 7.019846e+08            0            0 1.4334399e-11    11.613438 
   13900 7.0198218e+08            0            0 1.4334349e-11    11.613398 
   14000 7.0198618e+08            0            0 1.4334431e-11    11.613464 
   14100 7.0198615e+08            0            0 1.433443e-11    11.613463 
   14200 7.0198546e+08            0            0 1.4334416e-11    11.613452 
   14300 7.0198404e+08            0            0 1.4334387e-11    11.613428 
   14400 7.0197091e+08            0            0 1.4334119e-11    11.613211 
   14500 7.0197196e+08            0            0 1.4334141e-11    11.613229 
   14600 7.0197196e+08            0            0 1.4334141e-11    11.613229 
   14700 7.0197739e+08            0            0 1.4334252e-11    11.613318 
   14800 7.0198534e+08            0            0 1.4334414e-11     11.61345 
   14900 7.0190153e+08            0            0 1.4332702e-11    28.501667 
   15000 7.0198835e+08            0            0 1.4334475e-11      11.6135 
   15100 7.017763e+08            0            0 1.4330145e-11    37.602113 
   15200 7.019906e+08            0            0 1.4334521e-11    11.613537 
   15300 7.019906e+08            0            0 1.4334521e-11    11.613537 
   15400  7.01993e+08            0            0 1.433457e-11    11.613577 
   15500 7.0198429e+08            0            0 1.4334392e-11    11.613433 
   15600 7.019845e+08            0            0 1.4334397e-11    11.613436 
   15700 7.019845e+08            0            0 1.4334397e-11    11.613436 
   15800 7.0198579e+08            0            0 1.4334423e-11    11.613457 
   15900 7.0198449e+08            0            0 1.4334397e-11    11.613436 
   16000 7.0198622e+08            0            0 1.4334432e-11    11.613465 
   16100 7.0198209e+08            0            0 1.4334347e-11    11.613396 
   16200 7.0198257e+08            0            0 1.4334357e-11    11.613404 
   16300 7.0198257e+08            0            0 1.4334357e-11    11.613404 
   16400 7.0197975e+08            0            0  1.43343e-11    11.613358 
   16500 7.0197368e+08            0            0 1.4334176e-11    11.613257 
   16600 7.0197579e+08            0            0 1.4334219e-11    11.613292 
   16700 7.0197579e+08            0            0 1.4334219e-11    11.613292 
   16800 7.0197576e+08            0            0 1.4334218e-11    11.613291 
   16900 7.0197455e+08            0            0 1.4334194e-11    11.613271 
   17000 7.0197412e+08            0            0 1.4334185e-11    11.613264 
   17100 7.0197273e+08            0            0 1.4334156e-11    13.853181 
   17200 7.0198121e+08            0            0 1.4334329e-11    11.613382 
   17300 7.0198102e+08            0            0 1.4334326e-11    11.613379 
   17400 7.0198102e+08            0            0 1.4334326e-11    11.613379 
   17500 7.0198386e+08            0            0 1.4334384e-11    11.613425 
   17600 7.0198544e+08            0            0 1.4334416e-11    11.613452 
   17700 7.0198548e+08            0            0 1.4334417e-11    11.613452 
   17800 7.019866e+08            0            0 1.433444e-11    11.613471 
   17900 7.0198706e+08            0            0 1.4334449e-11    11.613478 
   18000 7.0199002e+08            0            0 1.4334509e-11    11.613527 
   18100 7.0199164e+08            0            0 1.4334542e-11    11.613554 
   18200 7.0199164e+08            0            0 1.4334542e-11    11.613554 
   18300 7.0199164e+08            0            0 1.4334542e-11    11.613554 
   18400 7.0199151e+08            0            0 1.433454e-11    11.613552 
   18500 7.0199351e+08            0            0 1.4334581e-11    11.613585 
   18600 7.0199351e+08            0            0 1.4334581e-11    11.613585 
   18700 7.0199351e+08            0            0 1.4334581e-11    11.613585 
   18800 7.0199482e+08            0            0 1.4334607e-11    11.613607 
   18900 7.0199484e+08            0            0 1.4334608e-11    11.613607 
   19000 7.0199484e+08            0            0 1.4334608e-11    11.613607 
   19100 7.019949e+08            0            0 1.4334609e-11    11.613608 
   19200 7.019949e+08            0            0 1.4334609e-11    11.613608 
   19300 7.0198791e+08            0            0 1.4334466e-11    11.613492 
   19400 7.0199137e+08            0            0 1.4334537e-11     11.61355 
   19500 7.0199132e+08            0            0 1.4334536e-11    11.613549 
   19600 7.0199132e+08            0            0 1.4334536e-11    11.613549 
   19700 7.0199113e+08            0            0 1.4334532e-11    11.613546 
   19800 7.0199113e+08            0            0 1.4334532e-11    11.613546 
   19900 7.0199016e+08            0            0 1.4334512e-11     11.61353 
   20000 7.019851e+08            0            0 1.4334409e-11    11.613446 
   20100 7.0199016e+08            0            0 1.4334512e-11     11.61353 
   20200 7.0199016e+08            0            0 1.4334512e-11     11.61353 
   20300 7.0198986e+08            0            0 1.4334506e-11    11.613525 
   20400 7.0198977e+08            0            0 1.4334504e-11    11.613523 
   20500 7.0198648e+08            0            0 1.4334437e-11    11.613469 
   20600 7.0198604e+08            0            0 1.4334428e-11    11.613462 
   20700 7.0198537e+08            0            0 1.4334414e-11     11.61345 
   20800 7.0198452e+08            0            0 1.4334397e-11    11.613436 
   20900 7.0198452e+08            0            0 1.4334397e-11    11.613436 
   21000 7.0198341e+08            0            0 1.4334374e-11    11.613418 
   21100 7.0198894e+08            0            0 1.4334487e-11    11.613509 
   21200 7.019905e+08            0            0 1.4334519e-11    11.613535 
   21300 7.019905e+08            0            0 1.4334519e-11    11.613535 
   21400 7.0199191e+08            0            0 1.4334548e-11    11.613559 
   21500 7.0199221e+08            0            0 1.4334554e-11    11.613564 
   21600 7.0199221e+08            0            0 1.4334554e-11    11.613564 
   21700 7.0199234e+08            0            0 1.4334557e-11    11.613566 
   21800 7.0199234e+08            0            0 1.4334557e-11    11.613566 
   21900 7.0199234e+08            0            0 1.4334557e-11    11.613566 
   22000 7.0199234e+08            0            0 1.4334557e-11    11.613566 
   22100 7.0199234e+08            0            0 1.4334557e-11    11.613566 
   22200 7.0199265e+08            0            0 1.4334563e-11    11.613571 
   22300 7.0199265e+08            0            0 1.4334563e-11    11.613571 
   22400 7.0199288e+08            0            0 1.4334568e-11    11.613575 
   22500  7.01993e+08            0            0 1.433457e-11    11.613577 
   22600 7.019931e+08            0            0 1.4334572e-11    11.613578 
   22700 7.0199227e+08            0            0 1.4334555e-11    11.613565 
   22800 7.0199227e+08            0            0 1.4334555e-11    11.613565 
   22900 7.019901e+08            0            0 1.4334511e-11    11.613529 
   23000   7.0199e+08            0            0 1.4334509e-11    11.613527 
   23100 7.0199188e+08            0            0 1.4334547e-11    11.613558 
   23200 7.0199042e+08            0            0 1.4334518e-11    11.613534 
   23300 7.0199299e+08            0            0 1.433457e-11    11.613576 
   23400 7.0199299e+08            0            0 1.433457e-11    11.613576 
   23500 7.0199299e+08            0            0 1.433457e-11    11.613576 
   23600 7.0199257e+08            0            0 1.4334562e-11     11.61357 
   23700 7.0199257e+08            0            0 1.4334562e-11     11.61357 
   23800 7.0199109e+08            0            0 1.4334531e-11    11.613545 
   23900 7.0142857e+08            0            0 1.4323045e-11    66.451323 
   24000 7.0199194e+08            0            0 1.4334549e-11    11.613559 
   24100 7.0199229e+08            0            0 1.4334556e-11    11.613565 
   24200 7.0199155e+08            0            0 1.4334541e-11    11.613553 
   24300 7.0199155e+08            0            0 1.4334541e-11    11.613553 
   24400 7.019895e+08            0            0 1.4334499e-11    11.613519 
   24500 7.019889e+08            0            0 1.4334487e-11    11.613509 
   24600 7.0198827e+08            0            0 1.4334474e-11    11.613498 
   24700 7.0199135e+08            0            0 1.4334537e-11    11.613549 
   24800 7.0199113e+08            0            0 1.4334532e-11    11.613546 
   24900 7.0187952e+08            0            0 1.4332253e-11    30.133974 
   25000 7.019905e+08            0            0 1.4334519e-11    11.613535 
   25100 7.019903e+08            0            0 1.4334515e-11    11.613532 
   25200 7.0199027e+08            0            0 1.4334515e-11    11.613532 
   25300 7.0199108e+08            0            0 1.4334531e-11    11.613545 
   25400 7.0199075e+08            0            0 1.4334524e-11    11.613539 
   25500 7.0199154e+08            0            0 1.4334541e-11    11.613553 
   25600 7.0196769e+08            0            0 1.4334053e-11    19.867326 
   25700 7.0199137e+08            0            0 1.4334537e-11     11.61355 
   25800 7.0197823e+08            0            0 1.4334269e-11    11.613332 
   25900 7.0198237e+08            0            0 1.4334353e-11    11.613401 
   26000 7.0197729e+08            0            0 1.4334249e-11    11.613317 
   26100 7.0197729e+08            0            0 1.4334249e-11    11.613317 
   26200 7.0197719e+08            0            0 1.4334247e-11    11.613315 
   26300 7.0197719e+08            0            0 1.4334247e-11    11.613315 
   26400 7.0197681e+08            0            0 1.433424e-11    11.613309 
   26500 7.0195496e+08            0            0 1.4333794e-11    15.964394 
   26600 7.0196689e+08            0            0 1.4334037e-11    11.613145 
   26700 7.0196689e+08            0            0 1.4334037e-11    11.613145 
   26800 7.0196689e+08            0            0 1.4334037e-11    11.613145 
   26900 7.0196641e+08            0            0 1.4334027e-11    11.613137 
   27000 7.0196641e+08            0            0 1.4334027e-11    11.613137 
   27100 7.0196669e+08            0            0 1.4334033e-11    11.613141 
   27200 7.0196603e+08            0            0 1.4334019e-11     11.61313 
   27300 7.0196728e+08            0            0 1.4334045e-11    11.613151 
   27400 7.0197128e+08            0            0 1.4334127e-11    11.613217 
   27500 7.0197128e+08            0            0 1.4334127e-11    11.613217 
   27600 7.0197121e+08            0            0 1.4334125e-11    11.613216 
   27700 7.0196872e+08            0            0 1.4334075e-11    11.613175 
   27800 7.0196884e+08            0            0 1.4334077e-11    11.613177 
   27900 7.0196678e+08            0            0 1.4334035e-11    11.613143 
   28000 7.0196574e+08            0            0 1.4334014e-11    11.613126 
   28100 7.0196529e+08            0            0 1.4334004e-11    11.613118 
   28200 7.0196529e+08            0            0 1.4334004e-11    11.613118 
   28300 7.0192464e+08            0            0 1.4333174e-11    21.485022 
   28400 7.0196627e+08            0            0 1.4334024e-11    11.613134 
   28500 7.0196123e+08            0            0 1.4333922e-11    11.613051 
   28600  7.01961e+08            0            0 1.4333917e-11    11.613047 
   28700 7.0196169e+08            0            0 1.4333931e-11    11.613059 
   28800 7.0196405e+08            0            0 1.4333979e-11    11.613098 
   28900 7.0196405e+08            0            0 1.4333979e-11    11.613098 
   29000 7.0196602e+08            0            0 1.4334019e-11     11.61313 
   29100 7.0196261e+08            0            0 1.433395e-11    11.613074 
   29200 7.0192987e+08            0            0 1.4333281e-11    24.605477 
   29300 7.0198226e+08            0            0 1.4334351e-11    11.613399 
   29400 7.019838e+08            0            0 1.4334382e-11    11.613424 
   29500 7.0198378e+08            0            0 1.4334382e-11    11.613424 
   29600 7.0198378e+08            0            0 1.4334382e-11    11.613424 
   29700 7.019837e+08            0            0 1.433438e-11    11.613423 
   29800 7.0174115e+08            0            0 1.4329428e-11    48.614022 
   29900 7.0198583e+08            0            0 1.4334424e-11    11.613458 
   30000 7.0199022e+08            0            0 1.4334514e-11    11.613531 
   30100 7.0198905e+08            0            0 1.433449e-11    11.613511 
   30200 7.0198136e+08            0            0 1.4334333e-11    11.613384 
   30300 7.0198978e+08            0            0 1.4334504e-11    11.613523 
   30400 7.019903e+08            0            0 1.4334515e-11    11.613532 
   30500 7.0199038e+08            0            0 1.4334517e-11    11.613533 
   30600 7.0199145e+08            0            0 1.4334539e-11    11.613551 
   30700 7.0199145e+08            0            0 1.4334539e-11    11.613551 
   30800 7.0199145e+08            0            0 1.4334539e-11    11.613551 
   30900 7.0199227e+08            0            0 1.4334555e-11    11.613565 
   31000 7.0199227e+08            0            0 1.4334555e-11    11.613565 
   31100 7.0199227e+08            0            0 1.4334555e-11    11.613565 
   31200 7.019917e+08            0            0 1.4334544e-11    11.613555 
   31300 7.0199186e+08            0            0 1.4334547e-11    11.613558 
   31400 7.0199186e+08            0            0 1.4334547e-11    11.613558 
   31500 7.0199375e+08            0            0 1.4334586e-11    11.613589 
   31600 7.0197503e+08            0            0 1.4334203e-11    19.111128 
   31700 7.0199464e+08            0            0 1.4334604e-11    11.613604 
   31800 7.0199486e+08            0            0 1.4334608e-11    11.613608 
   31900 7.0199387e+08            0            0 1.4334588e-11    11.613591 
   32000 7.0199387e+08            0            0 1.4334588e-11    11.613591 
   32100 7.0199387e+08            0            0 1.4334588e-11    11.613591 
   32200 7.0199389e+08            0            0 1.4334588e-11    11.613591 
   32300 7.0199365e+08            0            0 1.4334584e-11    11.613587 
   32400 7.0199365e+08            0            0 1.4334584e-11    11.613587 
   32500 7.0193168e+08            0            0 1.4333318e-11     25.88791 
   32600 7.0175376e+08            0            0 1.4329685e-11    38.026177 
   32700 7.0199007e+08            0            0 1.433451e-11    11.613528 
   32800 7.0199007e+08            0            0 1.433451e-11    11.613528 
   32900 7.0198983e+08            0            0 1.4334506e-11    11.613524 
   33000 7.0199019e+08            0            0 1.4334513e-11     11.61353 
   33100 7.0198965e+08            0            0 1.4334502e-11    11.613521 
   33200 7.0198985e+08            0            0 1.4334506e-11    11.613525 
   33300 7.0198947e+08            0            0 1.4334498e-11    11.613518 
   33400 7.0198947e+08            0            0 1.4334498e-11    11.613518 
   33500 7.0198848e+08            0            0 1.4334478e-11    11.613502 
   33600 7.0198848e+08            0            0 1.4334478e-11    11.613502 
   33700 7.0198848e+08            0            0 1.4334478e-11    11.613502 
   33800 7.0199017e+08            0            0 1.4334513e-11     11.61353 
   33900 7.0199017e+08            0            0 1.4334513e-11     11.61353 
   34000 7.0198854e+08            0            0 1.4334479e-11    11.613503 
   34100 7.0198854e+08            0            0 1.4334479e-11    11.613503 
   34200 7.019909e+08            0            0 1.4334527e-11    11.613542 
   34300 7.019909e+08            0            0 1.4334527e-11    11.613542 
   34400 7.019918e+08            0            0 1.4334546e-11    11.613557 
   34500 7.019934e+08            0            0 1.4334578e-11    11.613583 
   34600 7.0199347e+08            0            0 1.433458e-11    11.613584 
   34700 7.019904e+08            0            0 1.4334517e-11    11.613534 
   34800 7.0189677e+08            0            0 1.4332605e-11    24.212162 
   34900 7.0199073e+08            0            0 1.4334524e-11    11.613539 
   35000 7.0199099e+08            0            0 1.4334529e-11    11.613543 
   35100 7.0199093e+08            0            0 1.4334528e-11    11.613542 
   35200 7.0199093e+08            0            0 1.4334528e-11    11.613542 
   35300 7.0199093e+08            0            0 1.4334528e-11    11.613542 
   35400 7.0199093e+08            0            0 1.4334528e-11    11.613542 
   35500 7.0199405e+08            0            0 1.4334592e-11    11.613594 
   35600 7.0199405e+08            0            0 1.4334592e-11    11.613594 
   35700 7.0199405e+08            0            0 1.4334592e-11    11.613594 
   35800 7.0199405e+08            0            0 1.4334592e-11    11.613594 
   35900 7.0199679e+08            0            0 1.4334648e-11    11.613639 
   36000 7.0199709e+08            0            0 1.4334654e-11    11.613644 
   36100 7.0199641e+08            0            0 1.433464e-11    11.613633 
   36200 7.0199641e+08            0            0 1.433464e-11    11.613633 
   36300 7.0199641e+08            0            0 1.433464e-11    11.613633 
   36400 7.0199645e+08            0            0 1.4334641e-11    11.613634 
   36500 7.0199675e+08            0            0 1.4334647e-11    11.613639 
   36600 7.019962e+08            0            0 1.4334636e-11     11.61363 
   36700 7.0197874e+08            0            0 1.4334279e-11    18.953769 
   36800 7.0199623e+08            0            0 1.4334636e-11     11.61363 
   36900 7.0200215e+08            0            0 1.4334757e-11    11.613728 
   37000 7.0200332e+08            0            0 1.4334781e-11    11.613747 
   37100 7.0200332e+08            0            0 1.4334781e-11    11.613747 
   37200 7.0200332e+08            0            0 1.4334781e-11    11.613747 
   37300 7.0200332e+08            0            0 1.4334781e-11    11.613747 
   37400 7.0200332e+08            0            0 1.4334781e-11    11.613747 
   37500 7.0200332e+08            0            0 1.4334781e-11    11.613747 
   37600 7.0200308e+08            0            0 1.4334776e-11    11.613743 
   37700 7.0200308e+08            0            0 1.4334776e-11    11.613743 
   37800 7.0200311e+08            0            0 1.4334777e-11    11.613744 
   37900 7.020014e+08            0            0 1.4334742e-11    11.613716 
   38000 7.0199918e+08            0            0 1.4334696e-11    11.613679 
   38100 7.0199759e+08            0            0 1.4334664e-11    11.613653 
   38200 7.0199759e+08            0            0 1.4334664e-11    11.613653 
   38300 7.0199759e+08            0            0 1.4334664e-11    11.613653 
   38400 7.0199759e+08            0            0 1.4334664e-11    11.613653 
   38500 7.0199759e+08            0            0 1.4334664e-11    11.613653 
   38600 7.0199759e+08            0            0 1.4334664e-11    11.613653 
   38700 7.0199759e+08            0            0 1.4334664e-11    11.613653 
   38800 7.0199759e+08            0            0 1.4334664e-11    11.613653 
   38900 7.0199759e+08            0            0 1.4334664e-11    11.613653 
   39000 7.0171646e+08            0            0 1.4328923e-11    41.473452 
   39100 7.0199435e+08            0            0 1.4334598e-11    11.613599 
   39200 7.0199435e+08            0            0 1.4334598e-11    11.613599 
   39300 7.0192003e+08            0            0 1.433308e-11    26.937026 
   39400 7.0199484e+08            0            0 1.4334608e-11    11.613607 
   39500 7.0199441e+08            0            0 1.4334599e-11      11.6136 
   39600 7.0199441e+08            0            0 1.4334599e-11      11.6136 
   39700 7.0199439e+08            0            0 1.4334599e-11      11.6136 
   39800 7.0199474e+08            0            0 1.4334606e-11    11.613605 
   39900 7.017575e+08            0            0 1.4329761e-11    38.406889 
   40000 7.0199605e+08            0            0 1.4334633e-11    11.613627 
   40100 7.0199605e+08            0            0 1.4334633e-11    11.613627 
   40200 7.0199954e+08            0            0 1.4334704e-11    11.613685 
   40300 7.0199921e+08            0            0 1.4334697e-11    11.613679 
   40400 7.0199789e+08            0            0 1.433467e-11    11.613657 
   40500 7.0199789e+08            0            0 1.433467e-11    11.613657 
   40600 7.0199649e+08            0            0 1.4334642e-11    11.613634 
   40700 7.0196328e+08            0            0 1.4333964e-11     21.93511 
   40800 7.019975e+08            0            0 1.4334662e-11    11.613651 
   40900 7.0199669e+08            0            0 1.4334646e-11    11.613638 
   41000 7.019958e+08            0            0 1.4334628e-11    11.613623 
   41100 