Startdadei

# 70001 atoms
987 atoms

2 atom types

0.760030e-06    7.360440e-05    xlo xhi
0.760040e-06    7.363690e-05    ylo yhi
0.000000e-06    1.550036e-04    zlo zhi

Atoms

1	1	1.520000e-06	2.000000e+03	5.7477299999999992622095463e-05	9.1780900000000004151793145e-06	7.6000699999999998942787349e-06
2	1	1.520000e-06	2.000000e+03	7.4034699999999990999762639e-06	2.2675700000000001276434947e-06	8.6570300000000006978868178e-06
3	1	1.520000e-06	2.000000e+03	3.6539699999999998472188095e-05	2.1097599999999998547238391e-06	8.1265099999999998887098909e-06
4	1	1.520000e-06	2.000000e+03	5.4219099999999990511980602e-05	2.4630599999999995044759702e-06	8.5423400000000006152076765e-06
5	1	1.520000e-06	2.000000e+03	6.0686399999999995490303217e-05	2.3919599999999994567655235e-06	8.4115099999999997011125574e-06
6	1	1.520000e-06	2.000000e+03	8.6146099999999995014453649e-06	3.7782199999999998010974996e-06	8.5607799999999997135960439e-06
7	1	1.520000e-06	2.000000e+03	1.7044699999999999624365407e-05	3.6685399999999995230670190e-06	8.0769000000000005449595636e-06
8	1	1.520000e-06	2.000000e+03	2.9404900000000000308275627e-05	3.7878299999999999513392024e-06	8.7305700000000003359887715e-06
9	1	1.520000e-06	2.000000e+03	3.6444399999999999570973047e-05	3.6455300000000000601636536e-06	7.7062499999999992740832774e-06
10	1	1.520000e-06	2.000000e+03	3.8024900000000002480479017e-05	3.7132100000000001473947180e-06	8.7487999999999999903473047e-06
11	1	1.520000e-06	2.000000e+03	4.0890699999999997979894389e-05	3.4861099999999998145171990e-06	8.2199400000000001105656885e-06
12	1	1.520000e-06	2.000000e+03	4.2545199999999993743446391e-05	3.4404699999999995196550955e-06	8.4571000000000007333720436e-06
13	1	1.520000e-06	2.000000e+03	4.5778900000000003118506842e-05	3.4056999999999998508619630e-06	8.4552100000000006549058518e-06
14	1	1.520000e-06	2.000000e+03	5.5666299999999992512405428e-05	3.1836799999999999843426635e-06	8.2565199999999993435949308e-06
15	1	1.520000e-06	2.000000e+03	6.2389400000000002732662707e-05	3.6086999999999998554401151e-06	8.1954499999999996047352763e-06
16	1	1.520000e-06	2.000000e+03	6.4756299999999995266851405e-05	2.9326199999999993760354741e-06	8.2319600000000007171538016e-06
17	1	1.520000e-06	2.000000e+03	2.2496400000000000299555172e-05	4.9583200000000001575538137e-06	8.4453099999999992758548117e-06
18	1	1.520000e-06	2.000000e+03	3.3077100000000002181545222e-05	4.0220099999999996302833642e-06	8.3592299999999999238339474e-06
19	1	1.520000e-06	2.000000e+03	4.2179499999999991468029731e-05	5.0699999999999997388091914e-06	7.9224099999999995897316876e-06
20	1	1.520000e-06	2.000000e+03	5.1206499999999998383199556e-05	4.0873699999999987808856766e-06	8.6815800000000003188403708e-06
21	1	1.520000e-06	2.000000e+03	5.4685999999999991073081768e-05	4.6593999999999998075763188e-06	8.9188599999999991718930073e-06
22	1	1.520000e-06	2.000000e+03	5.9643499999999992312524344e-05	4.2453299999999993827120258e-06	8.6433000000000007463337240e-06
23	1	1.520000e-06	2.000000e+03	6.1340799999999993832693057e-05	5.0068299999999996304205635e-06	8.7809400000000003297601428e-06
24	1	1.520000e-06	2.000000e+03	6.3694099999999997203589674e-05	4.2967800000000003893588750e-06	8.6503299999999995592483287e-06
25	1	1.520000e-06	2.000000e+03	6.6561200000000002329793303e-05	5.0883299999999996124388536e-06	8.7362100000000001667928295e-06
26	1	1.520000e-06	2.000000e+03	7.0369499999999997699208498e-05	4.2975300000000003398264482e-06	8.6088400000000007408415548e-06
27	1	1.520000e-06	2.000000e+03	2.3786099999999998302229517e-06	6.0740200000000003343887493e-06	8.6843499999999992775738880e-06
28	1	1.520000e-06	2.000000e+03	8.5398999999999993307502749e-06	6.3406599999999998685672360e-06	8.7572499999999998840328683e-06
29	1	1.520000e-06	2.000000e+03	1.1506899999999999892113731e-05	6.0063200000000001186001644e-06	8.2114900000000002168801250e-06
30	1	1.520000e-06	2.000000e+03	1.4137299999999999305520977e-05	5.4151699999999998577301930e-06	8.3190100000000001632255442e-06
31	1	1.520000e-06	2.000000e+03	1.6397399999999999909566784e-05	5.5420399999999990343587698e-06	8.6909500000000001969412480e-06
32	1	1.520000e-06	2.000000e+03	2.0276100000000000568058101e-05	5.2868399999999993432156162e-06	8.8678500000000001464786625e-06
33	1	1.520000e-06	2.000000e+03	2.3637399999999998353745340e-05	6.3602700000000003465816870e-06	8.8708499999999999483489554e-06
34	1	1.520000e-06	2.000000e+03	2.8814299999999999559330971e-05	5.5825800000000000048545543e-06	8.8464799999999993668307191e-06
35	1	1.520000e-06	2.000000e+03	3.0633799999999997978276239e-05	6.0690799999999994973837528e-06	8.7178499999999981945027552e-06
36	1	1.520000e-06	2.000000e+03	3.9029500000000002992578407e-05	6.3495699999999997544604564e-06	8.6224299999999993689755312e-06
37	1	1.520000e-06	2.000000e+03	4.4771500000000003243079416e-05	5.5807699999999995935854973e-06	8.0856499999999994023926198e-06
38	1	1.520000e-06	2.000000e+03	4.7601100000000000681509016e-05	6.3643600000000001668150340e-06	8.6311400000000005103923881e-06
39	1	1.520000e-06	2.000000e+03	6.5063300000000004355386884e-05	5.1337800000000001683121698e-06	8.3255000000000001637683045e-06
40	1	1.520000e-06	2.000000e+03	6.9360600000000001310977715e-05	6.2852000000000004029500691e-06	8.5970499999999992833243229e-06
41	1	1.520000e-06	2.000000e+03	7.2033899999999988065547962e-05	5.7602600000000003094540596e-06	8.8852200000000006256109172e-06
42	1	1.520000e-06	2.000000e+03	4.0051199999999996954327605e-06	6.6624899999999994621769674e-06	8.4893300000000005925025401e-06
43	1	1.520000e-06	2.000000e+03	1.5384899999999999015707144e-05	6.9503299999999997420556570e-06	8.3197799999999998187341643e-06
44	1	1.520000e-06	2.000000e+03	1.8619299999999999761270131e-05	6.7694599999999998965970714e-06	8.2037799999999995741086639e-06
45	1	1.520000e-06	2.000000e+03	2.2250700000000000263345595e-05	7.2536500000000004226004095e-06	8.4430200000000000143699982e-06
46	1	1.520000e-06	2.000000e+03	2.5849800000000001091613952e-05	7.0343800000000002332900539e-06	8.8664099999999993606666568e-06
47	1	1.520000e-06	2.000000e+03	3.2033299999999997030326188e-05	6.5722699999999993332542442e-06	7.9860900000000006469964842e-06
48	1	1.520000e-06	2.000000e+03	3.4423199999999999339293094e-05	6.7783500000000000774492449e-06	8.3833600000000006567278318e-06
49	1	1.520000e-06	2.000000e+03	3.6101600000000000074799889e-05	7.5619299999999991040923637e-06	8.6457700000000007413197486e-06
50	1	1.520000e-06	2.000000e+03	3.7444200000000003110585400e-05	6.4799899999999999389505359e-06	8.4786700000000002574963506e-06
51	1	1.520000e-06	2.000000e+03	4.0946099999999997483355468e-05	6.8689599999999995368700663e-06	8.1653600000000003722487943e-06
52	1	1.520000e-06	2.000000e+03	4.5495599999999998563383896e-05	7.0098899999999988804266944e-06	8.6677100000000007379340541e-06
53	1	1.520000e-06	2.000000e+03	5.0832099999999990583721826e-05	7.0725399999999998814845248e-06	7.8008300000000003234911644e-06
54	1	1.520000e-06	2.000000e+03	5.8455999999999997329344636e-05	6.6726299999999998428194120e-06	8.5154399999999992295143803e-06
55	1	1.520000e-06	2.000000e+03	6.1725799999999997769856153e-05	7.5853699999999998486747629e-06	8.7394699999999978282626267e-06
56	1	1.520000e-06	2.000000e+03	6.3442900000000002048126946e-05	6.9512300000000000214299238e-06	7.9907199999999992796016757e-06
57	1	1.520000e-06	2.000000e+03	9.5834000000000004360241335e-06	8.1678699999999997773169128e-06	8.6435600000000002999991228e-06
58	1	1.520000e-06	2.000000e+03	1.2440500000000000575773804e-05	8.8451600000000001993967838e-06	8.7467500000000005774868431e-06
59	1	1.520000e-06	2.000000e+03	1.7261300000000000227180427e-05	8.1165200000000006840070871e-06	8.5860599999999995799761232e-06
60	1	1.520000e-06	2.000000e+03	2.0422199999999999050657659e-05	7.7810099999999995544139320e-06	8.1155699999999986009313613e-06
61	1	1.520000e-06	2.000000e+03	2.4315500000000001229547714e-05	7.9976400000000005618234697e-06	8.8849800000000007769865654e-06
62	1	1.520000e-06	2.000000e+03	2.6729399999999998565345175e-05	8.7846900000000000820980089e-06	8.3199199999999994480873872e-06
63	1	1.520000e-06	2.000000e+03	2.8405499999999997645747790e-05	7.9348999999999991940150337e-06	8.8901199999999995114349782e-06
64	1	1.520000e-06	2.000000e+03	3.1126800000000001559033458e-05	7.8119900000000000607871045e-06	8.4464099999999999937713366e-06
65	1	1.520000e-06	2.000000e+03	3.4342399999999998351073865e-05	8.3216399999999994926058386e-06	8.2437399999999997810516683e-06
66	1	1.520000e-06	2.000000e+03	3.9204199999999999812216878e-05	7.8191499999999994975673559e-06	8.0807700000000002216096057e-06
67	1	1.520000e-06	2.000000e+03	4.0814099999999999424799002e-05	8.3965399999999994022897160e-06	8.5707400000000002077702246e-06
68	1	1.520000e-06	2.000000e+03	5.0227899999999993895221512e-05	8.5377699999999994036597312e-06	8.4102199999999992442072452e-06
69	1	1.520000e-06	2.000000e+03	5.1951999999999999969944181e-05	8.4022700000000004468773268e-06	8.8647399999999994257837699e-06
70	1	1.520000e-06	2.000000e+03	5.4510499999999992499274265e-05	8.1619700000000003928474560e-06	8.5313799999999996223880999e-06
71	1	1.520000e-06	2.000000e+03	5.6875800000000001853915632e-05	8.0822899999999998275857990e-06	8.5772199999999995087595142e-06
72	1	1.520000e-06	2.000000e+03	5.8814799999999998027580550e-05	8.5324699999999996407511541e-06	8.8909600000000006756861043e-06
73	1	1.520000e-06	2.000000e+03	6.5903499999999989975192627e-05	8.4167800000000007534925114e-06	8.2777700000000001989306983e-06
74	1	1.520000e-06	2.000000e+03	6.8337500000000000891300922e-05	7.8257599999999994224222921e-06	8.2498099999999991994688656e-06
75	1	1.520000e-06	2.000000e+03	6.9543500000000002558321610e-05	8.6153599999999994519129382e-06	7.6565500000000004106152918e-06
76	1	1.520000e-06	2.000000e+03	7.0637999999999996907258659e-05	8.7729300000000007232411892e-06	8.7143700000000003894496531e-06
77	1	1.520000e-06	2.000000e+03	4.8943099999999997319470070e-06	9.9569100000000001853515952e-06	8.5608600000000002278261260e-06
78	1	1.520000e-06	2.000000e+03	8.4445300000000006148586154e-06	1.0103899999999999941837844e-05	8.7076900000000006499181054e-06
79	1	1.520000e-06	2.000000e+03	1.0382699999999999711957667e-05	9.5819099999999978465106687e-06	8.5930700000000003819155756e-06
80	1	1.520000e-06	2.000000e+03	1.6668699999999998480944979e-05	1.0163600000000000403627999e-05	8.4294299999999996921701273e-06
81	1	1.520000e-06	2.000000e+03	1.9097600000000001602357483e-05	9.1134499999999999634171105e-06	8.4738800000000005964309949e-06
82	1	1.520000e-06	2.000000e+03	2.1658399999999999174923535e-05	9.0446499999999998767449480e-06	8.7913500000000001165885097e-06
83	1	1.520000e-06	2.000000e+03	3.0138099999999998641593904e-05	9.0208899999999996163410620e-06	8.0489800000000006496457192e-06
84	1	1.520000e-06	2.000000e+03	3.5638200000000000411924661e-05	9.3629999999999999712356827e-06	8.3450599999999996851142436e-06
85	1	1.520000e-06	2.000000e+03	4.2452999999999994863372765e-05	9.0190999999999997571459992e-06	8.6313399999999992548687516e-06
86	1	1.520000e-06	2.000000e+03	4.3981699999999999386914723e-05	9.0126299999999994616442858e-06	8.7654599999999999290940800e-06
87	1	1.520000e-06	2.000000e+03	4.8818399999999993244849394e-05	9.5315500000000002463586626e-06	8.5626500000000000870211889e-06
88	1	1.520000e-06	2.000000e+03	5.3357099999999990972386621e-05	9.2322799999999999759651634e-06	8.1506100000000002170092578e-06
89	1	1.520000e-06	2.000000e+03	5.5810399999999989997714195e-05	9.4471400000000008292206852e-06	8.3706799999999996193898039e-06
90	1	1.520000e-06	2.000000e+03	6.0529599999999997262615375e-05	9.7098199999999994729655770e-06	8.5298600000000000164119066e-06
91	1	1.520000e-06	2.000000e+03	6.4511599999999994035221329e-05	9.4187800000000006467402308e-06	8.2277099999999998684602903e-06
92	1	1.520000e-06	2.000000e+03	6.7900100000000004028810618e-05	9.7606799999999998635391227e-06	8.6301700000000004163415099e-06
93	1	1.520000e-06	2.000000e+03	2.0547000000000001650483569e-05	1.0235400000000000292170454e-05	8.7322099999999998662771408e-06
94	1	1.520000e-06	2.000000e+03	2.2837699999999999894793185e-05	1.0979600000000000722456296e-05	8.3527399999999999232911871e-06
95	1	1.520000e-06	2.000000e+03	2.6843799999999998689764399e-05	1.0440299999999998957185901e-05	8.6079999999999995765904287e-06
96	1	1.520000e-06	2.000000e+03	2.9638300000000000479190645e-05	1.1379199999999999403754551e-05	8.1235699999999992019627387e-06
97	1	1.520000e-06	2.000000e+03	3.1007100000000003365771550e-05	1.0477599999999999430154093e-05	8.8327999999999995249131898e-06
98	1	1.520000e-06	2.000000e+03	3.7336299999999996909998828e-05	1.0602199999999999897371851e-05	8.7559599999999994271275561e-06
99	1	1.520000e-06	2.000000e+03	4.3463000000000000439849546e-05	1.0916000000000000179421582e-05	8.9059299999999992804430513e-06
100	1	1.520000e-06	2.000000e+03	4.6782200000000000780081555e-05	1.0366100000000000582399927e-05	8.5950600000000006796528965e-06
101	1	1.520000e-06	2.000000e+03	4.9735799999999992287904454e-05	1.0736700000000000049574754e-05	7.9896299999999992612386215e-06
102	1	1.520000e-06	2.000000e+03	5.3583499999999999511245130e-05	1.0778199999999999567534999e-05	8.8143400000000007214837755e-06
103	1	1.520000e-06	2.000000e+03	5.7242399999999999326508876e-05	1.1294800000000000686170044e-05	8.5664800000000003535891371e-06
104	1	1.520000e-06	2.000000e+03	5.8702599999999995950862586e-05	1.1458199999999999833225246e-05	8.0199099999999999267797854e-06
105	1	1.520000e-06	2.000000e+03	6.2923399999999994570629158e-05	1.1258699999999999456323611e-05	8.3386199999999997942070479e-06
106	1	1.520000e-06	2.000000e+03	6.6402900000000000813038525e-05	1.0405300000000000139321887e-05	8.6426799999999997256659029e-06
107	1	1.520000e-06	2.000000e+03	6.8808700000000004104797058e-05	1.1057199999999998082131185e-05	8.7638999999999992189698983e-06
108	1	1.520000e-06	2.000000e+03	7.0762100000000004748450244e-05	1.0775899999999999606496714e-05	8.6566200000000008153147255e-06
109	1	1.520000e-06	2.000000e+03	4.1542199999999996739685065e-06	1.2671099999999999689294893e-05	8.6015500000000006801956567e-06
110	1	1.520000e-06	2.000000e+03	6.3105799999999987945353830e-06	1.2256099999999997733428868e-05	8.6358600000000003567811324e-06
111	1	1.520000e-06	2.000000e+03	1.2223099999999999912855646e-05	1.1991700000000000739231419e-05	7.8798200000000000534083888e-06
112	1	1.520000e-06	2.000000e+03	1.7470999999999999252814700e-05	1.2132000000000000056632650e-05	8.5703899999999994403212730e-06
113	1	1.520000e-06	2.000000e+03	1.9733500000000000037169920e-05	1.2020200000000000551065096e-05	8.5848900000000007414488815e-06
114	1	1.520000e-06	2.000000e+03	2.8312700000000000838179179e-05	1.1922700000000000214016999e-05	8.6841500000000005330975245e-06
115	1	1.520000e-06	2.000000e+03	3.8114400000000002216495737e-05	1.2222899999999999474313388e-05	8.4537599999999991695403753e-06
116	1	1.520000e-06	2.000000e+03	4.2006599999999998595271583e-05	1.1734200000000000240017034e-05	8.2890600000000005600922851e-06
117	1	1.520000e-06	2.000000e+03	4.6361899999999993979109270e-05	1.1829999999999998543521833e-05	8.6731399999999994306423834e-06
118	1	1.520000e-06	2.000000e+03	4.7843699999999997308445382e-05	1.2391199999999999201258545e-05	8.6198699999999998542718482e-06
119	1	1.520000e-06	2.000000e+03	5.0884499999999997061576190e-05	1.2382499999999998759395159e-05	8.2492700000000003870970211e-06
120	1	1.520000e-06	2.000000e+03	5.4178499999999996355592308e-05	1.2490299999999997964447024e-05	8.2169200000000006036543487e-06
121	1	1.520000e-06	2.000000e+03	6.0259800000000001980304115e-05	1.1609100000000000370509526e-05	8.0008899999999992178056907e-06
122	1	1.520000e-06	2.000000e+03	6.5311799999999986814265551e-05	1.2714299999999997852666647e-05	8.6361199999999999104465312e-06
123	1	1.520000e-06	2.000000e+03	6.6829500000000001099301206e-05	1.2054599999999998053302336e-05	8.8207599999999992132840299e-06
124	1	1.520000e-06	2.000000e+03	1.8547399999999998382907125e-06	1.3076900000000001801007780e-05	8.3387399999999997185192238e-06
125	1	1.520000e-06	2.000000e+03	7.7992199999999995037314182e-06	1.3432199999999999906951861e-05	8.2409299999999997181701628e-06
126	1	1.520000e-06	2.000000e+03	9.3749900000000001732292781e-06	1.3152900000000000734542288e-05	8.5444200000000004326626557e-06
127	1	1.520000e-06	2.000000e+03	1.2414499999999997775388880e-05	1.3622899999999999622718981e-05	8.6972000000000003488596564e-06
128	1	1.520000e-06	2.000000e+03	1.5581399999999999590738486e-05	1.3602099999999999754103294e-05	8.0465600000000007642952590e-06
129	1	1.520000e-06	2.000000e+03	1.8493000000000000648640863e-05	1.3269500000000000600728668e-05	8.5141200000000000620804450e-06
130	1	1.520000e-06	2.000000e+03	2.1077499999999999366487660e-05	1.3723899999999999163927122e-05	8.5387399999999994977106094e-06
131	1	1.520000e-06	2.000000e+03	2.2997600000000001531754237e-05	1.3370199999999999484123422e-05	8.2176200000000004444863574e-06
132	1	1.520000e-06	2.000000e+03	2.4616199999999999892133853e-05	1.3171799999999999825138312e-05	8.4050199999999997005697971e-06
133	1	1.520000e-06	2.000000e+03	3.2592300000000003028493428e-05	1.2906699999999997907911171e-05	8.3929399999999999788585434e-06
134	1	1.520000e-06	2.000000e+03	3.4442200000000000343226142e-05	1.3091999999999999335564480e-05	8.2213500000000004917831767e-06
135	1	1.520000e-06	2.000000e+03	4.0379200000000001267823346e-05	1.2963899999999997970120784e-05	7.9534999999999993208635654e-06
136	1	1.520000e-06	2.000000e+03	4.4575199999999999718458543e-05	1.4013899999999998081424979e-05	8.5223899999999992222647974e-06
137	1	1.520000e-06	2.000000e+03	5.3187799999999999217125540e-05	1.3942899999999998252985661e-05	7.9763799999999990069342315e-06
138	1	1.520000e-06	2.000000e+03	5.4587299999999998269175489e-05	1.3922899999999998444473112e-05	8.8747500000000000295935151e-06
139	1	1.520000e-06	2.000000e+03	5.7748499999999997750466108e-05	1.3873000000000000836528763e-05	8.3567799999999996338889696e-06
140	1	1.520000e-06	2.000000e+03	6.0678699999999998935217016e-05	1.3573299999999997590390335e-05	7.8292699999999993261358064e-06
141	1	1.520000e-06	2.000000e+03	6.1952999999999994510356538e-05	1.3112799999999999204180166e-05	8.5846099999999997886765413e-06
142	1	1.520000e-06	2.000000e+03	6.6757900000000006731498692e-05	1.3623499999999997550213966e-05	8.0086100000000005601306224e-06
143	1	1.520000e-06	2.000000e+03	7.1289600000000002662584042e-05	1.3364599999999999063401458e-05	8.7467899999999999875689369e-06
144	1	1.520000e-06	2.000000e+03	3.7785100000000001828738896e-06	1.4389699999999998786303149e-05	8.2104700000000000131936823e-06
145	1	1.520000e-06	2.000000e+03	5.2916299999999998513139192e-06	1.4303399999999997596633085e-05	8.9012899999999999482843890e-06
146	1	1.520000e-06	2.000000e+03	1.0260100000000000242030701e-05	1.4514399999999999472792035e-05	8.2840799999999994659722474e-06
147	1	1.520000e-06	2.000000e+03	1.2020800000000000172625976e-05	1.5275800000000000348262391e-05	8.1052699999999997329275941e-06
148	1	1.520000e-06	2.000000e+03	1.4839099999999999938472307e-05	1.5070899999999999989181050e-05	8.8601100000000007931785784e-06
149	1	1.520000e-06	2.000000e+03	2.2062100000000000070074502e-05	1.4731900000000000354981322e-05	7.8949600000000003861789707e-06
150	1	1.520000e-06	2.000000e+03	2.9037200000000000423699964e-05	1.4791799999999999561247840e-05	8.4699600000000008101453883e-06
151	1	1.520000e-06	2.000000e+03	3.0914899999999997709434346e-05	1.4196799999999999328768874e-05	8.8387500000000007130841057e-06
152	1	1.520000e-06	2.000000e+03	3.8840800000000002580036185e-05	1.5219999999999998273650902e-05	8.0512000000000000964539212e-06
153	1	1.520000e-06	2.000000e+03	4.0520299999999998951261820e-05	1.5114999999999998431927072e-05	8.3630799999999998954429425e-06
154	1	1.520000e-06	2.000000e+03	4.3031899999999997062649637e-05	1.4234699999999999423297946e-05	8.6448799999999994674330581e-06
155	1	1.520000e-06	2.000000e+03	4.6186200000000001743023087e-05	1.4214200000000000212495646e-05	8.1681900000000001401713468e-06
156	1	1.520000e-06	2.000000e+03	5.0507999999999991433668328e-05	1.4910799999999999607743634e-05	7.9068599999999993743890134e-06
157	1	1.520000e-06	2.000000e+03	5.2285299999999998964150816e-05	1.5187700000000000293909688e-05	8.2219899999999995234261502e-06
158	1	1.520000e-06	2.000000e+03	6.0745799999999996988345879e-05	1.5065199999999997655122062e-05	8.2626900000000006753491516e-06
159	1	1.520000e-06	2.000000e+03	6.3947899999999998060101758e-05	1.4615599999999999452542435e-05	8.8535599999999999834467829e-06
160	1	1.520000e-06	2.000000e+03	3.3409200000000001932630098e-06	1.6092200000000001544175204e-05	8.7542699999999997872036223e-06
161	1	1.520000e-06	2.000000e+03	6.8079300000000000551254528e-06	1.5582099999999997737504601e-05	8.7047100000000005530888594e-06
162	1	1.520000e-06	2.000000e+03	1.0877199999999999805518243e-05	1.6459600000000000770937481e-05	7.9940600000000008434333440e-06
163	1	1.520000e-06	2.000000e+03	1.4757699999999999328692199e-05	1.6532500000000001377396461e-05	8.3522299999999998214479657e-06
164	1	1.520000e-06	2.000000e+03	1.9105999999999999692341587e-05	1.5720599999999999884289087e-05	8.3326200000000001904664620e-06
165	1	1.520000e-06	2.000000e+03	2.3520499999999999523811467e-05	1.5578700000000000446681581e-05	8.2315599999999998400692855e-06
166	1	1.520000e-06	2.000000e+03	2.9184300000000001099010813e-05	1.6305899999999999176259272e-05	8.8422499999999999172441492e-06
167	1	1.520000e-06	2.000000e+03	3.0989399999999998436099602e-05	1.5981299999999998929850129e-05	8.5701699999999992967379681e-06
168	1	1.520000e-06	2.000000e+03	5.1189000000000000668333444e-05	1.6296499999999998893563877e-05	8.5129499999999995294873087e-06
169	1	1.520000e-06	2.000000e+03	5.3701700000000001191703680e-05	1.5747500000000001269982383e-05	8.5174200000000005217641250e-06
170	1	1.520000e-06	2.000000e+03	5.7519299999999996624543142e-05	1.5943500000000000748658080e-05	8.8794699999999998759822595e-06
171	1	1.520000e-06	2.000000e+03	6.6386799999999999391704641e-05	1.6069999999999996911697817e-05	8.4832799999999991850604952e-06
172	1	1.520000e-06	2.000000e+03	9.7877400000000005836266886e-06	1.7236900000000000935133568e-05	8.8841800000000007168834276e-06
173	1	1.520000e-06	2.000000e+03	1.2342599999999999361641190e-05	1.6720099999999999377956264e-05	8.5893999999999994497418970e-06
174	1	1.520000e-06	2.000000e+03	1.5758500000000001672884054e-05	1.7689999999999998341873239e-05	8.0855900000000002872694790e-06
175	1	1.520000e-06	2.000000e+03	1.7125300000000000174042378e-05	1.6875200000000000654298490e-05	8.1764699999999999999091699e-06
176	1	1.520000e-06	2.000000e+03	2.0466699999999998370488197e-05	1.7424200000000001666011773e-05	8.0264300000000003319170633e-06
177	1	1.520000e-06	2.000000e+03	3.2429299999999997982259164e-05	1.7501300000000001317462806e-05	8.4775100000000004244566851e-06
178	1	1.520000e-06	2.000000e+03	3.5883699999999996621460191e-05	1.7106199999999998950838201e-05	8.5954900000000002672660357e-06
179	1	1.520000e-06	2.000000e+03	4.1507800000000002625579615e-05	1.6770999999999999178611904e-05	8.7104399999999999036105758e-06
180	1	1.520000e-06	2.000000e+03	4.9756899999999997896531212e-05	1.6841400000000001079556236e-05	8.5685499999999994714906457e-06
181	1	1.520000e-06	2.000000e+03	5.2813099999999990759834423e-05	1.6843000000000001199762512e-05	7.9305300000000001150752410e-06
182	1	1.520000e-06	2.000000e+03	6.0900299999999990172797754e-05	1.7523499999999999173676615e-05	8.3313600000000001381556675e-06
183	1	1.520000e-06	2.000000e+03	6.3117300000000006385270090e-05	1.7374300000000000669935635e-05	8.5376400000000004738599790e-06
184	1	1.520000e-06	2.000000e+03	6.6781100000000003392292003e-05	1.7824300000000001443665673e-05	8.8699600000000003685281594e-06
185	1	1.520000e-06	2.000000e+03	6.8484200000000004077659044e-05	1.7597699999999995854396695e-05	8.3010299999999993629789391e-06
186	1	1.520000e-06	2.000000e+03	4.2416899999999997021658121e-06	1.8475499999999999545642962e-05	8.6560399999999992047289982e-06
187	1	1.520000e-06	2.000000e+03	5.7567100000000001486255043e-06	1.8496000000000000450511156e-05	8.8747199999999996249989975e-06
188	1	1.520000e-06	2.000000e+03	9.2567000000000006671189642e-06	1.8700199999999997580628699e-05	8.4209299999999996888489992e-06
189	1	1.520000e-06	2.000000e+03	1.3293099999999999832672390e-05	1.8821499999999999282228672e-05	8.5328200000000004082001057e-06
190	1	1.520000e-06	2.000000e+03	1.7476300000000000709789172e-05	1.8394299999999997680339217e-05	8.2579900000000005340014542e-06
191	1	1.520000e-06	2.000000e+03	1.9077999999999999282797661e-05	1.8139799999999998677061019e-05	8.6877499999999999565286971e-06
192	1	1.520000e-06	2.000000e+03	2.8705000000000000453343960e-05	1.8847999999999999790837452e-05	7.8555299999999999861202346e-06
193	1	1.520000e-06	2.000000e+03	3.5367899999999997256994178e-05	1.9080600000000001595715227e-05	8.7471400000000007550178885e-06
194	1	1.520000e-06	2.000000e+03	4.1002199999999998521714450e-05	1.8951099999999998854541619e-05	8.5862700000000007180718520e-06
195	1	1.520000e-06	2.000000e+03	4.2841700000000000137304057e-05	1.8392199999999999851909085e-05	8.0616299999999995883233350e-06
196	1	1.520000e-06	2.000000e+03	4.5515999999999995860849172e-05	1.8324600000000000702424577e-05	8.6892699999999995625048904e-06
197	1	1.520000e-06	2.000000e+03	5.0754499999999996612178726e-05	1.8199899999999998321869796e-05	8.6815800000000003188403708e-06
198	1	1.520000e-06	2.000000e+03	5.3766599999999994420867705e-05	1.8398700000000000552005316e-05	8.3095500000000007654070086e-06
199	1	1.520000e-06	2.000000e+03	5.5595899999999993999592884e-05	1.7930300000000000089969004e-05	8.8347899999999998226505107e-06
200	1	1.520000e-06	2.000000e+03	5.7018300000000002607149913e-05	1.8654699999999999456218661e-05	7.7239599999999998211110130e-06
201	1	1.520000e-06	2.000000e+03	5.9245499999999993751432364e-05	1.8104499999999999201383619e-05	8.1017599999999998292140799e-06
202	1	1.520000e-06	2.000000e+03	6.4870399999999994733457243e-05	1.7978099999999999869483222e-05	8.8545400000000007770511318e-06
203	1	1.520000e-06	2.000000e+03	6.9775699999999996709851291e-05	1.8910600000000001529292665e-05	7.8206999999999995081380669e-06
204	1	1.520000e-06	2.000000e+03	6.0940299999999999954218219e-06	2.0042800000000000616414211e-05	8.8849199999999999677975301e-06
205	1	1.520000e-06	2.000000e+03	2.7333400000000001591566809e-05	1.9716899999999997519480391e-05	8.4707800000000005752895729e-06
206	1	1.520000e-06	2.000000e+03	4.8319999999999991375978364e-05	1.9250899999999998931819387e-05	8.4269399999999999921430557e-06
207	1	1.520000e-06	2.000000e+03	5.0317499999999993850509361e-05	1.9430099999999998842395085e-05	7.7527799999999999957991242e-06
208	1	1.520000e-06	2.000000e+03	5.2050699999999992773850460e-05	1.9832299999999999836610906e-05	8.7951199999999995739674227e-06
209	1	1.520000e-06	2.000000e+03	5.5424499999999997639638094e-05	1.9372200000000000633419359e-05	8.2312599999999991822558984e-06
210	1	1.520000e-06	2.000000e+03	6.1519200000000005541626880e-05	1.9465699999999998975885873e-05	8.3003299999999995221469304e-06
211	1	1.520000e-06	2.000000e+03	6.4161799999999999518859872e-05	1.9315899999999999156518118e-05	7.9261899999999997466640714e-06
212	1	1.520000e-06	2.000000e+03	4.3295300000000002028531162e-06	2.0446899999999995612386117e-05	8.7075700000000007256059295e-06
213	1	1.520000e-06	2.000000e+03	1.6230299999999999425743386e-05	2.1592499999999996976784641e-05	8.8365799999999996818455736e-06
214	1	1.520000e-06	2.000000e+03	2.2840199999999995212176043e-05	2.1574000000000000457339028e-05	7.9094200000000005831585909e-06
215	1	1.520000e-06	2.000000e+03	2.4181899999999996274521394e-05	2.1067499999999997768165491e-05	8.5226000000000003603605261e-06
216	1	1.520000e-06	2.000000e+03	2.7256799999999999648339633e-05	2.1488900000000000204856618e-05	8.7320599999999995373704473e-06
217	1	1.520000e-06	2.000000e+03	3.3950800000000000270806988e-05	2.0414199999999998449626282e-05	8.7205399999999983330720849e-06
218	1	1.520000e-06	2.000000e+03	3.8091599999999999656523364e-05	2.1107700000000001211864636e-05	8.3480099999999993773489720e-06
219	1	1.520000e-06	2.000000e+03	3.9789000000000001395963206e-05	2.0516499999999999147293206e-05	8.8913799999999995637457728e-06
220	1	1.520000e-06	2.000000e+03	4.1745600000000002280028943e-05	2.0444699999999997564684856e-05	8.8660499999999995877301290e-06
221	1	1.520000e-06	2.000000e+03	4.3044999999999998682113228e-05	2.1055799999999999218497707e-05	8.2084299999999996058207968e-06
222	1	1.520000e-06	2.000000e+03	5.4829999999999995115382984e-05	2.1568000000000000853598442e-05	8.4390500000000001184488271e-06
223	1	1.520000e-06	2.000000e+03	5.6890900000000001082538226e-05	2.1086899999999999649183055e-05	8.5105299999999996441368486e-06
224	1	1.520000e-06	2.000000e+03	6.0007299999999990421789553e-05	2.1288600000000001461917740e-05	8.8198899999999993385042807e-06
225	1	1.520000e-06	2.000000e+03	6.2592599999999987505673593e-05	2.0822799999999999924667204e-05	8.7137200000000006582532089e-06
226	1	1.520000e-06	2.000000e+03	6.7790200000000000219065044e-05	2.0993899999999999014940397e-05	8.3978699999999992692771220e-06
227	1	1.520000e-06	2.000000e+03	6.9943699999999999167114850e-05	2.0646900000000000473775186e-05	8.1458200000000005559439020e-06
228	1	1.520000e-06	2.000000e+03	6.5935299999999991940775879e-06	2.2082700000000001194213825e-05	8.4089699999999998914499214e-06
229	1	1.520000e-06	2.000000e+03	8.1326999999999992314392641e-06	2.2213700000000000448190790e-05	8.6544699999999994891172403e-06
230	1	1.520000e-06	2.000000e+03	1.2558800000000000781437588e-05	2.2325999999999999356048094e-05	8.5555300000000000603230313e-06
231	1	1.520000e-06	2.000000e+03	1.4594500000000000620179255e-05	2.2550700000000000779165621e-05	8.6418700000000006600751890e-06
232	1	1.520000e-06	2.000000e+03	2.0681999999999999510910328e-05	2.2528900000000000411904538e-05	8.6242600000000003323185824e-06
233	1	1.520000e-06	2.000000e+03	2.4839899999999995734408301e-05	2.2510800000000001381411652e-05	8.5946500000000007970808041e-06