LAMMPS (12 Feb 2014)
# Pour granular particles into chute container, then induce flow

atom_style	sphere
boundary	p p fm
newton		off
communicate	single vel yes

region		reg block -10 10 -10 10 -0.5 16 units box
create_box	1 reg
Created orthogonal box = (-10 -10 -0.5) to (10 10 16)
  1 by 1 by 1 MPI processor grid

neighbor	0.2 bin
neigh_modify	delay 0

# IMPORTANT NOTE: these values of stiffness (2000) and timestep (0.001)
# are used in this example file to produce a quick simulation and movie.
# More appropriate values for realistic simulations would be
# k = 2.0e5 and dt = 0.0001, as in bench/in.chute.

pair_style      gran/hooke/history 2.0e5 NULL 50.0 NULL 0.5 0
pair_coeff	* *

timestep	1.0e-4

fix		1 all nve/sphere
fix		2 all gravity 1.0 spherical 0.0 -180.0
fix		zlower all wall/gran 2000.0 NULL 50.0 NULL 0.5 0 		zplane 0.0 2000.0

region		slab block -9.0 9.0 -9.0 9.0 10.0 15.0 units box
fix		ins all pour 6000 1 300719 diam one 0.5 vol 0.13 50 region slab
Particle insertion: 3217 every 31623 steps, 6000 by step 31624

compute		1 all erotate/sphere
thermo_style	custom step atoms ke c_1 vol
thermo		1000
thermo_modify	lost ignore norm no
compute_modify	thermo_temp dynamic yes

dump		id all custom 1000 dump.pour id type xs ys zs radius

#dump		2 all image 1000 image.*.jpg type type #		axes yes 0.8 0.02 view 80 -30
#dump_modify	2 pad 5

#dump		3 all movie 1000 movie.mpg type type #axes yes 0.8 0.02 view 80 -30
#dump_modify	3 pad 5

run		250000
Memory usage per processor = 8.89009 Mbytes
Step Atoms KinEng 1 Volume 
       0        0           -0            0         6600 
    1000     3217    377.22549            0         6600 
    2000     3217    413.21107            0         6600 
    3000     3217    451.30217            0         6600 
    4000     3217    491.49879            0         6600 
    5000     3217    533.80094            0         6600 
    6000     3217     578.2086            0         6600 
    7000     3217    624.72179            0         6600 
    8000     3217    673.34049            0         6600 
    9000     3217    724.06472            0         6600 
   10000     3217    776.89447            0         6600 
   11000     3217    831.82975            0         6600 
   12000     3217    888.87054            0         6600 
   13000     3217    948.01686            0         6600 
   14000     3217    1009.2687            0         6600 
   15000     3217    1072.6261            0         6600 
   16000     3217    1138.0889            0         6600 
   17000     3217    1205.6573            0         6600 
   18000     3217    1275.3313            0         6600 
   19000     3217    1347.1107            0         6600 
   20000     3217    1420.9957            0         6600 
   21000     3217    1496.9862            0         6600 
   22000     3217    1575.0822            0         6600 
   23000     3217    1641.8304 2.8220855e-32         6600 
   24000     3217    1644.6591    6.1982403         6600 
   25000     3217    1635.5279    25.034076         6600 
   26000     3217    1624.1072    47.595774         6600 
   27000     3217    1608.3376    71.534936         6600 
   28000     3217    1597.6457    95.601036         6600 
   29000     3217    1580.4209    115.66958         6600 
   30000     3217    1568.2698    130.15966         6600 
   31000     3217    1547.5783    152.79753         6600 
   32000     6000    1840.7003    172.64569         6600 
   33000     6000    1851.2379    184.16637         6600 
   34000     6000    1853.3475    193.75461         6600 
   35000     6000    1856.9524    205.34934         6600 
   36000     6000    1851.8925    212.52662         6600 
   37000     6000    1848.4361    222.51163         6600 
   38000     6000    1844.8819    227.54605         6600 
   39000     6000    1845.4558    233.74103         6600 
   40000     6000    1822.0349    241.40309         6600 
   41000     6000     1810.722    241.19129         6600 
   42000     6000    1797.2767    241.50989         6600 
   43000     6000    1776.5266    244.09187         6600 
   44000     6000    1764.2024    245.58441         6600 
   45000     6000    1738.6324    249.70767         6600 
   46000     6000    1711.9963    246.29823         6600 
   47000     6000    1681.9515    247.59515         6600 
   48000     6000    1661.4966    240.92603         6600 
   49000     6000    1634.2462    237.21692         6600 
   50000     6000    1606.2976    238.12649         6600 
   51000     6000    1567.9164    239.68791         6600 
   52000     6000    1534.4873     237.6171         6600 
   53000     6000    1503.1482    233.06528         6600 
   54000     6000    1478.9132    227.64483         6600 
   55000     6000    1452.9925     218.7196         6600 
   56000     6000    1434.1188    212.94587         6600 
   57000     6000    1404.0474    210.79169         6600 
   58000     6000    1378.0431    210.13286         6600 
   59000     6000     1349.996    209.00421         6600 
   60000     6000    1323.6387    203.71484         6600 
   61000     6000    1291.2399    201.71438         6600 
   62000     6000    1257.2236    200.15045         6600 
   63000     6000    1228.6969    195.49471         6600 
   64000     6000    1199.9713    190.34294         6600 
   65000     6000     1161.267    193.92531         6600 
   66000     6000    1126.7644     193.8962         6600 
   67000     6000    1089.1863     190.2441         6600 
   68000     6000     1044.145     187.3945         6600 
   69000     6000    993.24106    185.66404         6600 
   70000     6000    941.26322    182.92052         6600 
   71000     6000    886.20344    181.26976         6600 
   72000     6000    830.93989    177.79814         6600 
   73000     6000    775.53429    176.95333         6600 
   74000     6000    718.01448    177.13883         6600 
   75000     6000    662.27614    172.05742         6600 
   76000     6000    599.59395    170.54649         6600 
   77000     6000    535.06069    168.41258         6600 
   78000     6000    470.57816    165.58122         6600 
   79000     6000    405.71254    161.93556         6600 
   80000     6000    345.29405    156.89548         6600 
   81000     6000    281.80802    151.52939         6600 
   82000     6000    217.87276    142.58503         6600 
   83000     6000    175.66333    127.06581         6600 
   84000     6000    144.73854    113.33071         6600 
   85000     6000    124.69824    100.80259         6600 
   86000     6000    109.18145    90.298215         6600 
   87000     6000    96.968274    81.928275         6600 
   88000     6000    86.347021    75.244088         6600 
   89000     6000    79.069513    69.082248         6600 
   90000     6000    72.655871    64.151843         6600 
   91000     6000    66.981108    59.906711         6600 
   92000     6000    62.466326    55.544824         6600 
   93000     6000    59.237567    51.618997         6600 
   94000     6000    56.168609    47.733312         6600 
   95000     6000    53.051768    44.678863         6600 
   96000     6000    50.887833    42.098718         6600 
   97000     6000    49.134745      39.4864         6600 
   98000     6000    47.256356    37.074314         6600 
   99000     6000    44.631686    34.781033         6600 
  100000     6000    42.794927    32.682823         6600 
  101000     6000    41.033206    30.497792         6600 
  102000     6000     38.72542    28.845584         6600 
  103000     6000    37.027052    26.980619         6600 
  104000     6000    35.393746     25.04058         6600 
  105000     6000    33.227319     23.82538         6600 
  106000     6000    31.968273    22.395589         6600 
  107000     6000    30.612259     21.00413         6600 
  108000     6000    29.014677    19.588181         6600 
  109000     6000    27.391268    18.190745         6600 
  110000     6000     26.09233    17.024143         6600 
  111000     6000     24.75985     15.57578         6600 
  112000     6000    23.385617    14.499346         6600 
  113000     6000    21.504213    13.153867         6600 
  114000     6000    19.481008    11.895715         6600 
  115000     6000    18.100962    10.873464         6600 
  116000     6000    16.353506    9.8980608         6600 
  117000     6000      14.8048    9.1017581         6600 
  118000     6000    13.219176    8.4164777         6600 
  119000     6000    12.325552    7.5340784         6600 
  120000     6000    11.026573    6.9525554         6600 
  121000     6000    9.5790699    6.3162342         6600 
  122000     6000    8.3335789     5.744914         6600 
  123000     6000    7.8646216    5.1128499         6600 
  124000     6000    6.8069147    4.5863574         6600 
  125000     6000     6.016172    4.1627131         6600 
  126000     6000    5.4004623     3.751585         6600 
  127000     6000    4.3301475    3.3227906         6600 
  128000     6000    3.8493424    2.8631881         6600 
  129000     6000    3.4195683    2.4867999         6600 
  130000     6000    2.7627393    2.1770132         6600 
  131000     6000    2.4585896    1.9422995         6600 
  132000     6000    2.2249375    1.7451646         6600 
  133000     6000    2.0448194      1.55068         6600 
  134000     6000     1.846688    1.3919902         6600 
  135000     6000    1.7520976    1.2634546         6600 
  136000     6000    1.5389732    1.1695169         6600 
  137000     6000    1.4346343    1.0864646         6600 
  138000     6000    1.2368889   0.93540894         6600 
  139000     6000    1.0952002   0.86360011         6600 
  140000     6000   0.94093753    0.7879817         6600 
  141000     6000   0.91420474    0.7051699         6600 
  142000     6000    0.8041292   0.61548906         6600 
  143000     6000   0.70422433    0.5507627         6600 
  144000     6000   0.66073168   0.52380168         6600 
  145000     6000   0.58783138   0.46558517         6600 
  146000     6000    0.5223809   0.43075287         6600 
  147000     6000   0.49189326   0.39783888         6600 
  148000     6000   0.47734156   0.37685899         6600 
  149000     6000   0.43374697   0.35040127         6600 
  150000     6000   0.42498787    0.3172117         6600 
  151000     6000    0.3974919   0.29178048         6600 
  152000     6000    0.3824015   0.26583855         6600 
  153000     6000   0.32935251   0.23613527         6600 
  154000     6000   0.31651588   0.22307436         6600 
  155000     6000   0.30993529   0.20561057         6600 
  156000     6000   0.28053898   0.19026477         6600 
  157000     6000   0.28109535   0.17451549         6600 
  158000     6000   0.24598327   0.16260946         6600 
  159000     6000   0.22806485   0.14369571         6600 
  160000     6000   0.20800831   0.13627895         6600 
  161000     6000   0.19059852   0.12566964         6600 
  162000     6000   0.17407433   0.11256659         6600 
  163000     6000   0.16602991   0.10592376         6600 
  164000     6000   0.17331548   0.10228382         6600 
  165000     6000   0.13306391  0.096638173         6600 
  166000     6000   0.13195372  0.092102793         6600 
  167000     6000   0.14057618  0.093565991         6600 
  168000     6000   0.13220439  0.092570802         6600 
  169000     6000   0.11494942  0.085449718         6600 
  170000     6000   0.11185471  0.080726114         6600 
  171000     6000   0.10574727  0.078004811         6600 
  172000     6000  0.099967117  0.079334317         6600 
  173000     6000  0.073977434  0.066489867         6600 
  174000     6000  0.061063373   0.04878731         6600 
  175000     6000  0.049899343  0.042357468         6600 
  176000     6000  0.048107057  0.039387129         6600 
  177000     6000  0.038446184  0.038680074         6600 
  178000     6000  0.035408892  0.035367708         6600 
  179000     6000  0.032166084  0.034201361         6600 
  180000     6000   0.03185619   0.03207072         6600 
  181000     6000  0.032168858    0.0306045         6600 
  182000     6000   0.03491962   0.03007493         6600 
  183000     6000  0.032707721  0.031464125         6600 
  184000     6000  0.034704175  0.033418054         6600 
  185000     6000  0.034243203  0.029362613         6600 
  186000     6000  0.036126367  0.029556228         6600 
  187000     6000  0.039237176  0.029140367         6600 
  188000     6000  0.032465323  0.028541781         6600 
  189000     6000  0.032336553  0.029668436         6600 
  190000     6000  0.024208253  0.023131613         6600 
  191000     6000  0.019533394  0.022161207         6600 
  192000     6000  0.019399417  0.022276989         6600 
  193000     6000  0.017069165   0.01851388         6600 
  194000     6000  0.013791165  0.016719203         6600 
  195000     6000   0.01040196  0.012717038         6600 
  196000     6000 0.0096005159    0.0120923         6600 
  197000     6000 0.0095718131   0.01051455         6600 
  198000     6000 0.0091195945 0.0088306905         6600 
  199000     6000 0.0094980582 0.0086502147         6600 
  200000     6000  0.010424411 0.0096133602         6600 
  201000     6000  0.011773261  0.009868319         6600 
  202000     6000  0.013568527  0.011245416         6600 
  203000     6000  0.015435943  0.013229921         6600 
  204000     6000  0.018496571  0.012933998         6600 
  205000     6000  0.014124635  0.010418459         6600 
  206000     6000    0.0137078 0.0088463594         6600 
  207000     6000 0.0089142131 0.0065768803         6600 
  208000     6000 0.0082530981 0.0060532376         6600 
  209000     6000 0.0078194923 0.0053712919         6600 
  210000     6000 0.0064843199 0.0045387433         6600 
  211000     6000 0.0053330737  0.003485637         6600 
  212000     6000 0.0054972728 0.0035457374         6600 
  213000     6000 0.0030586313 0.0025215524         6600 
  214000     6000 0.0029135212  0.002360139         6600 
  215000     6000  0.002297795 0.0014601234         6600 
  216000     6000 0.0017225865 0.0012018008         6600 
  217000     6000 0.0019241637  0.001418794         6600 
  218000     6000 0.0025552443 0.0018389692         6600 
  219000     6000 0.0032587744 0.0022102894         6600 
  220000     6000 0.0037169485 0.0025635273         6600 
  221000     6000 0.0023192307 0.0018268754         6600 
  222000     6000  0.002018082 0.0015769715         6600 
  223000     6000 0.0018280489 0.0014637154         6600 
  224000     6000 0.0020849049 0.0014579888         6600 
  225000     6000 0.0019215191 0.0012156041         6600 
  226000     6000  0.002048563 0.0012485972         6600 
  227000     6000 0.0023627254 0.0015738492         6600 
  228000     6000 0.0022437399 0.0015167722         6600 
  229000     6000 0.0026521845 0.0017388201         6600 
  230000     6000 0.0033330622 0.0021952678         6600 
  231000     6000 0.0036370934 0.0023024325         6600 
  232000     6000 0.0029211009 0.0029012862         6600 
  233000     6000 0.0024785294 0.0025591257         6600 
  234000     6000 0.0026689196  0.002817229         6600 
  235000     6000 0.0027909697 0.0032199718         6600 
  236000     6000 0.0013745451 0.0014206255         6600 
  237000     6000 0.0012548716 0.0013665386         6600 
  238000     6000 0.0010165985 0.0010627774         6600 
  239000     6000 0.0009992177 0.00095475447         6600 
  240000     6000 0.0009514098 0.00091326668         6600 
  241000     6000 0.00091129563 0.00081464604         6600 
  242000     6000 0.00094683873 0.00083843125         6600 
  243000     6000 0.0010517628 0.00093354174         6600 
  244000     6000 0.00091575721 0.00090468947         6600 
  245000     6000 0.00095886736 0.00091954458         6600 
  246000     6000 0.00062336568 0.00072310006         6600 
  247000     6000 0.00058843091 0.00069481594         6600 
  248000     6000 0.0006688209 0.00077283126         6600 
  249000     6000 0.00052005783 0.00037216512         6600 
  250000     6000 0.0002506745 0.0002048294         6600 
Loop time of 287.605 on 1 procs for 250000 steps with 6000 atoms

Pair  time (%) = 189.14 (65.7638)
Neigh time (%) = 3.04557 (1.05894)
Comm  time (%) = 6.25019 (2.17319)
Outpt time (%) = 2.18105 (0.758348)
Other time (%) = 86.9881 (30.2457)

Nlocal:    6000 ave 6000 max 6000 min
Histogram: 1 0 0 0 0 0 0 0 0 0
Nghost:    909 ave 909 max 909 min
Histogram: 1 0 0 0 0 0 0 0 0 0
Neighs:    33187 ave 33187 max 33187 min
Histogram: 1 0 0 0 0 0 0 0 0 0

Total # of neighbors = 33187
Ave neighs/atom = 5.53117
Neighbor list builds = 693
Dangerous builds = 0

unfix		ins

fix   big all pour 1 1 300720 diam one 4.0 vol 0.13 50 region slab
Particle insertion: 6 every 31623 steps, 1 by step 250001
run 120000
Memory usage per processor = 13.9013 Mbytes
Step Atoms KinEng 1 Volume 
  250000     6000 0.0002506745 0.0002048294         6600 
  251000     6001    24.855208 0.00017352513         6600 
  252000     6001    29.104152 0.00014795909         6600 
  253000     6001    33.688212 7.1566567e-05         6600 
  254000     6001    38.607388 7.2123996e-05         6600 
  255000     6001    43.861663 7.8923903e-05         6600 
  256000     6001    49.451108 0.0001301961         6600 
  257000     6001     55.37571 0.00020690444         6600 
  258000     6001    61.635219 0.00021352749         6600 
  259000     6001    68.229837 0.00013481378         6600 
  260000     6001    75.159601 9.7091251e-05         6600 
  261000     6001    82.424482 7.1389082e-05         6600 
  262000     6001    90.024472 4.8188234e-05         6600 
  263000     6001    97.959572 3.8248441e-05         6600 
  264000     6001    106.22978 3.1122356e-05         6600 
  265000     6001     114.8351 3.1697345e-05         6600 
  266000     6001    123.77553 3.6056083e-05         6600 
  267000     6001    133.05107 4.5909562e-05         6600 
  268000     6001    142.66172 6.6018365e-05         6600 
  269000     6001    152.60748 9.0910889e-05         6600 
  270000     6001    162.88829 0.00010884391         6600 
  271000     6001    173.50423 0.00011345079         6600 
  272000     6001    184.45529 0.00014204803         6600 
  273000     6001    195.74141 7.6793739e-05         6600 
  274000     6001    207.36259 3.9889575e-05         6600 
  275000     6001    219.31895 4.7036094e-05         6600 
  276000     6001    231.61044 5.8799428e-05         6600 
  277000     6001    244.23696 5.983884e-05         6600 
  278000     6001     257.1986 3.1228162e-05         6600 
  279000     6001    270.49535 2.3158628e-05         6600 
  280000     6001    284.12721 2.1996233e-05         6600 
  281000     6001    298.09419 3.3686502e-05         6600 
  282000     6001    312.39629 5.5851643e-05         6600 
  283000     6001    327.03344 3.0172298e-05         6600 
  284000     6001    342.00572 4.3622724e-05         6600 
  285000     6001    357.31308 2.2303992e-05         6600 
  286000     6001    301.93502    11.778652         6600 
  287000     6001    220.47892     17.80053         6600 
  288000     6001    167.03852    17.832756         6600 
  289000     6001    139.97299    16.747605         6600 
  290000     6001    109.30428    14.499115         6600 
  291000     6001    80.564054    17.155312         6600 
  292000     6001    70.004299    12.937762         6600 
  293000     6001    63.990896    10.979402         6600 
  294000     6001    45.432121    9.7215041         6600 
  295000     6001    31.441886     8.424115         6600 
  296000     6001    40.476492    7.8224664         6600 
  297000     6001    45.528837    7.2033044         6600 
  298000     6001      39.5108     6.570871         6600 
  299000     6001    34.469248    6.1170421         6600 
  300000     6001    30.048917    5.7373971         6600 
  301000     6001    26.296807    5.4087041         6600 
  302000     6001    22.996296    5.1015658         6600 
  303000     6001    20.301067    4.8682792         6600 
  304000     6001    18.045889    4.6461048         6600 
  305000     6001    16.191466    4.5412645         6600 
  306000     6001    14.870999    4.3578525         6600 
  307000     6001     13.91262     4.229232         6600 
  308000     6001    13.455851    4.0989661         6600 
  309000     6001    13.429983    3.9682515         6600 
  310000     6001      13.7435    3.8284742         6600 
  311000     6001    14.541892    3.6391786         6600 
  312000     6001    15.502278    3.5171784         6600 
  313000     6001    16.863432    3.4490821         6600 
  314000     6001    18.365278    3.4105587         6600 
  315000     6001    20.264205    3.3360615         6600 
  316000     6001    22.651374    3.2502042         6600 
  317000     6001    25.255388     3.198113         6600 
  318000     6001    27.969815    3.1002685         6600 
  319000     6001    31.183345    3.0391086         6600 
  320000     6001    32.081701     3.155174         6600 
  321000     6001     14.88215    3.5973183         6600 
  322000     6001    18.173867    5.0209415         6600 
  323000     6001    27.070034    5.9008314         6600 
  324000     6001    23.584385    5.6338488         6600 
  325000     6001    20.594162    5.5661576         6600 
  326000     6001    18.045375    5.4872184         6600 
  327000     6001    15.519259    5.5290742         6600 
  328000     6001    13.495405    5.4457339         6600 
  329000     6001    11.982725    5.3679936         6600 
  330000     6001    10.929163    5.2683252         6600 
  331000     6001    10.172263    5.2182144         6600 
  332000     6001    8.8110462    5.3124397         6600 
  333000     6001    8.2477463    5.2916911         6600 
  334000     6001    8.5704749     5.179668         6600 
  335000     6001    9.0782183     5.040037         6600 
  336000     6001    9.4626708    5.0873093         6600 
  337000     6001    9.6740915    5.1754192         6600 
  338000     6001    10.572542    5.2515891         6600 
  339000     6001    11.599636    5.3076079         6600 
  340000     6001    12.289851    5.3754141         6600 
  341000     6001    12.289788    5.0912591         6600 
  342000     6001    11.620287    5.3232093         6600 
  343000     6001    11.493795    5.0149019         6600 
  344000     6001    5.7199108    4.7053761         6600 
  345000     6001     9.177346    4.4726545         6600 
  346000     6001    8.5836822    4.2375927         6600 
  347000     6001    6.3169014    4.1781605         6600 
  348000     6001    4.8687559    4.0873729         6600 
  349000     6001    3.7417408    3.9910693         6600 
  350000     6001    3.2728221    3.8672875         6600 
  351000     6001     3.185327     3.785633         6600 
  352000     6001    3.0230632    3.7481279         6600 
  353000     6001    3.4273913    3.6785043         6600 
  354000     6001    3.9577166    3.8070288         6600 
  355000     6001    4.3834468    3.8033265         6600 
  356000     6001    5.1963353     3.711028         6600 
  357000     6001    3.5218121     3.545451         6600 
  358000     6001    1.5130251    3.3837822         6600 
  359000     6001    3.4524574    3.4679678         6600 
  360000     6001    3.3878061    3.4609295         6600 
  361000     6001    2.3542919    3.4155243         6600 
  362000     6001    1.6641473    3.3710281         6600 
  363000     6001    1.2903934    3.3284457         6600 
  364000     6001    1.2166303    3.3038948         6600 
  365000     6001     1.458712    3.2696524         6600 
  366000     6001    1.9531975    3.1367915         6600 
  367000     6001    2.4603064    2.7639579         6600 
  368000     6001    2.6375727    2.6084837         6600 
  369000     6001    1.0834641    2.4812174         6600 
  370000     6001    1.8668481    2.3827061         6600 
Loop time of 197.466 on 1 procs for 120000 steps with 6001 atoms

Pair  time (%) = 113.158 (57.3048)
Neigh time (%) = 18.4896 (9.36341)
Comm  time (%) = 18.2591 (9.24668)
Outpt time (%) = 1.08112 (0.547494)
Other time (%) = 46.4789 (23.5376)

Nlocal:    6001 ave 6001 max 6001 min
Histogram: 1 0 0 0 0 0 0 0 0 0
Nghost:    6183 ave 6183 max 6183 min
Histogram: 1 0 0 0 0 0 0 0 0 0
Neighs:    33133 ave 33133 max 33133 min
Histogram: 1 0 0 0 0 0 0 0 0 0

Total # of neighbors = 33133
Ave neighs/atom = 5.52125
Neighbor list builds = 404
Dangerous builds = 0
